    1044
 i =   251861, time =   100744.400, E =     -6434.7709508448
  O        -6.2442678156       -9.2625815254        2.1490817890
  H        -6.7622662525       -8.4701389262        1.8774705100
  H        -6.8668740294       -9.9658640521        1.8804962711
  O        -3.9896475793       -2.8226027038       -3.0196693666
  H        -4.6265733183       -2.1735978480       -3.4199795149
  H        -3.9107817633       -2.5435751742       -2.0085124398
  O        -0.1037927302       -7.5024137098        3.6983719428
  H        -0.7733897072       -6.9159264491        3.2938319555
  H         0.4872512809       -6.8970351082        4.1894316734
  O        -6.3810554943       -4.5946685432        1.0985338455
  H        -5.5352522381       -4.5209919503        1.6020555201
  H        -6.1012664136       -4.3801567488        0.1422646884
  O        -6.1313531787        2.0788821810       -2.3542744611
  H        -6.3892511021        1.6447187373       -3.1518569740
  H        -5.7839362026        1.3190736611       -1.7655491566
  O         5.3158288003        2.0771758679       -5.3683770784
  H         5.0566892407        2.9940901939       -5.2608890077
  H         6.2388852593        1.8204132130       -5.6691721646
  O        -8.4701775245       -5.9444894775       -4.5941694307
  H        -7.8021107509       -5.9899726899       -5.3543823087
  H        -8.5346981892       -6.8556958578       -4.1888976887
  O        -4.5153556613       -7.0889877736       -1.5147163922
  H        -4.9655155381       -7.7451148370       -2.1822597495
  H        -5.0606569293       -6.2477054715       -1.6782439734
  O         0.8611988355      -12.1339163590        1.8378870306
  H         1.5674339659      -12.7274903149        2.2634260200
  H         1.2489225127      -11.2422143657        1.8863199222
  O         3.7065730627        0.0603694883       -4.5028036277
  H         2.7882340107        0.0483818702       -4.9328708332
  H         4.2535762940        0.8814856560       -4.8564932451
  O        -7.1596064270       -0.7131688792       -6.0936306171
  H        -8.0315437281       -0.3401195599       -5.8775690829
  H        -6.9587004925       -0.1978309283       -6.8956094885
  O        -1.2630991960       -8.0898410233       -8.3045009031
  H        -1.6242745597       -8.9076502785       -8.6297641365
  H        -1.8218657607       -7.8998286355       -7.4860749864
  O        -3.4535079162      -12.4453837700       -4.2194795646
  H        -4.3396024750      -12.9395892079       -4.0729884366
  H        -3.8172542448      -11.5389338125       -4.1084100918
  O        -5.6442600380        1.8467896164       -5.9925182001
  H        -4.8940167257        1.2755438825       -6.2943725238
  H        -5.6133376539        2.7837061919       -6.1528406644
  O        -3.8318037631       -8.4323432439        0.6441389709
  H        -4.5612535417       -8.7592986431        1.2346464598
  H        -4.2464567570       -7.8628893425       -0.0382280586
  O        -5.4540084642       -8.7402723050       -5.7469438441
  H        -4.5476553714       -8.5826787055       -5.4936285447
  H        -5.6777387604       -8.1520158308       -6.5253567181
  O         3.0331079999      -12.9836387181       -1.7589836510
  H         2.0919455082      -13.0176592405       -1.5548574845
  H         3.0887710143      -13.0833784922       -2.7405125689
  O         1.8702340981       -8.6312519202       -4.1281885378
  H         1.3108368563       -8.6503454533       -3.2912006973
  H         1.9420137935       -7.6684293732       -4.4461548825
  O        -0.1465820394       -8.8395583394       -1.7786274438
  H        -0.7681552986       -9.6319917387       -1.8362438800
  H        -0.7051441113       -8.0599777277       -1.9839625982
  O         0.9740649526       -5.8172148638       -7.5824676952
  H         1.2406520175       -6.0116164600       -6.6741180398
  H         0.5128618789       -6.6170569521       -7.8706221791
  O        -6.0980467030       -8.6957834793       -2.9678834542
  H        -5.9425889550       -9.6838982931       -2.8526501212
  H        -6.1671729391       -8.5334316479       -3.9163326401
  O        -1.5301497535      -11.4061699820       -2.2354144792
  H        -1.9760623022      -11.2590314614       -1.3304643584
  H        -2.2303290853      -11.7824148197       -2.7966052616
  O        -5.7789027871       -0.6329574322       -3.7939459444
  H        -6.4555763774       -0.9136311825       -3.0711045277
  H        -6.2739399772       -0.7866360032       -4.6852370376
  O         4.8305883330        8.9346936398       -2.4784346184
  H         4.6170690415        8.3874367289       -3.3112722842
  H         4.2187884495        8.6810935524       -1.7796884548
  O        -4.9227837853        0.3754493894       -0.3185580028
  H        -4.3362879076        1.1383835390       -0.1297707305
  H        -5.4431769300        0.2389361810        0.4473739666
  O       -12.8523701412       -0.7910388966       11.1869514474
  H       -13.4434411129       -1.4062038998       11.6517967519
  H       -11.9595509286       -0.8766245057       11.6870612759
  O         0.9400450361       -6.0537058429       13.8761110560
  H         1.5937549892       -6.7032802732       13.2689981602
  H         0.3229772807       -6.7833106745       14.1872502786
  O         0.4510566183        3.5084100071       13.0184406636
  H         1.2574790058        4.0805889633       12.7748078423
  H        -0.2415320584        4.1839003152       13.1900069456
  O        -7.7991371657       -0.3877059461        9.2130620910
  H        -7.0105127627       -0.6438266195        8.6427739376
  H        -8.3488454523       -1.1785012934        9.3111105389
  O        -5.3399825614       -2.6518613667       11.2065983895
  H        -5.9203484945       -1.9199002470       11.5475697659
  H        -4.8558537494       -2.9035128920       12.0352933817
  O        -2.5371419624       -0.1293854417       14.0824911155
  H        -3.3270598840        0.2783079288       13.6671833102
  H        -2.0244208834        0.6437492074       14.4146888054
  O        -3.8909938703        9.1078686417       13.0329606042
  H        -2.9258447562        9.2306360762       12.9773115470
  H        -3.9772497954        8.2748803662       12.4871988056
  O         2.7346407211      -11.6337799357       10.6305303029
  H         2.0208289243      -11.9526722738       10.0908605719
  H         2.8751302679      -12.3550952232       11.2274224654
  O        -9.3885853705       -3.7438989407       11.6749434751
  H        -9.7338203780       -4.1147046453       12.5189023508
  H        -8.8219402143       -4.3578462519       11.1750422386
  O        -0.7909370758        1.6499550652       11.4811555753
  H        -0.3039421828        0.7550789116       11.6289397335
  H        -0.3351499847        2.3044942571       12.0962057696
  O         2.9038086110       -4.2425658424       14.0288284369
  H         2.8644360323       -5.0813473554       14.5233316301
  H         2.0375013958       -4.0829184115       13.5968059275
  O        -4.5431943828        3.9601746342       13.5287112033
  H        -5.0806877905        4.7385260810       13.5877094703
  H        -4.2963252755        4.0117390685       12.5504397508
  O        -1.6642801494        5.4076214278       13.4156441533
  H        -1.7412628083        5.6711393629       12.4430755978
  H        -2.4240074699        4.8198331363       13.5576003039
  O        -5.2031900808        1.6988561512        8.6679005508
  H        -4.5538197553        1.2240428248        9.3172701822
  H        -5.6219805759        0.9360444948        8.2201865297
  O       -14.5443163342        3.2901750226        9.1532107015
  H       -13.9186495500        3.0646323423        8.4380451430
  H       -14.3714297170        2.6660558562        9.9284486162
  O         0.3399294321       -5.3437041937        9.6987848380
  H         0.5399969659       -4.9001293268       10.5949968019
  H         1.0243461326       -5.1725939504        9.0554955177
  O         2.3459689406        5.5676287954       12.6534855762
  H         2.0444042866        5.5435745799       11.7005324929
  H         3.4355035053        5.4490073316       12.8017594053
  O        -3.7108022196       -6.3022109998       11.2763466709
  H        -4.5130192060       -6.8682495898       11.1166306190
  H        -2.8879814495       -6.7326855178       11.0492820203
  O       -14.6873417290       -7.6370451105       10.4816168517
  H       -14.3378622213       -6.7870736368       10.0678803781
  H       -14.4996856068       -8.4443056788        9.9401175323
  O        -8.3845891911       -7.8683868539       12.6706179003
  H        -8.2561378452       -7.2609251193       11.8232929174
  H        -8.1712581092       -8.8188305893       12.4473826938
  O        -1.1536328150       -4.1948507816        6.2246383215
  H        -1.7487729613       -4.9744034513        6.4603570488
  H        -1.4137887058       -3.4826439553        6.8567042284
  O       -14.9797528822       -2.0666875155       12.3840086381
  H       -15.6107643415       -2.0421499152       11.6953465314
  H       -15.4312621098       -1.3768912841       13.0583048546
  O        -5.8996135168       -9.8685817842        4.8298743616
  H        -6.2688848092       -9.4971926978        3.9770724874
  H        -6.4345017573       -9.6726849589        5.7147643041
  O         1.3304815510       -0.6037963450        8.3950468433
  H         0.9160167732       -1.2363160007        7.7410206450
  H         0.6305652666       -0.7272498887        9.0639053019
  O         3.1682389180       -0.9805248367       12.2028200648
  H         3.4461259694       -1.8929523600       11.9275341086
  H         3.2199891303       -0.9426047170       13.1889709221
  O        -4.5195754973       -9.7719808666       11.0142112791
  H        -4.8058648637       -9.1862556436       10.3071095916
  H        -3.7902829214      -10.2162515350       10.5563793160
  O        -8.6484919793        2.1171055817        8.8765125481
  H        -8.2360621375        1.1649219896        8.9496386113
  H        -9.4447269249        1.9666263687        9.5474727374
  O       -11.9546540582       -8.3055432324       10.0099256499
  H       -12.7266483765       -7.7586977969        9.7677182852
  H       -11.2943185229       -8.0210921048        9.3301076554
  O         6.2000505120      -10.7050891801       11.5951117638
  H         7.0176606740      -10.9561625817       11.1261410943
  H         5.4919129715      -10.8483039752       10.8720014652
  O        -3.4848400436        0.9744449995       10.9428108497
  H        -2.4941622471        1.1854924447       11.1829874940
  H        -4.1202675668        1.1558901230       11.7149566594
  O        -2.8963103321       -6.4116986813        6.3952995486
  H        -3.4629197119       -6.8209745412        5.7121547326
  H        -2.7897683267       -7.1691420710        7.0144267699
  O        -8.1303862119       -6.2511290827       10.2106596107
  H        -7.6954339139       -5.3525529627       10.0307321239
  H        -8.7799232685       -6.3851962946        9.4756996826
  O        -6.8859880611       -3.8600262145        9.3821330526
  H        -6.3156076795       -3.4936732282       10.1443244622
  H        -6.1436546149       -4.3315060980        8.8603526123
  O        -6.8495034585       -0.2932362569       11.6501455709
  H        -7.7338130879       -0.1206607306       12.0923586612
  H        -7.1676271811       -0.1293741210       10.7072096507
  O        -5.9440534083       -0.6071881818        7.4022541818
  H        -5.1447083888       -1.1275310070        7.1894959010
  H        -6.3682081820       -0.3989889110        6.5119330957
  O        -4.5446029511       -5.2927562355        8.1901920843
  H        -4.0282367928       -5.3455651892        9.0213892418
  H        -3.9442944641       -5.6062959564        7.4193782182
  O         1.7862852868       -5.7261170289        4.4372355883
  H         1.9147410903       -5.6342030471        5.4290017220
  H         2.6910603386       -5.9868397697        4.1179293142
  O        -8.0055932709       -3.6350912885        3.1238937193
  H        -8.8511266460       -3.2507531675        2.7920688916
  H        -7.5292798528       -3.7790913188        2.2636059861
  O         1.3346946510       -2.3280676501        5.4123922432
  H         2.1584632512       -2.0699702453        5.8455245355
  H         1.4823569497       -3.2325053421        5.1235155606
  O         8.2566221095        1.2904394354       13.0956503236
  H         7.4495540956        0.8023205923       12.7211263945
  H         8.1016964751        2.1899494666       13.1756096671
  O        -1.6913692881       -2.0697077868        7.9695601656
  H        -1.6790724684       -1.1034349325        7.5948569438
  H        -1.9813525999       -2.0951344314        8.9327846336
  O         2.8833675216        1.9537066743        6.4310469509
  H         3.0087687827        0.9909228116        6.4636944515
  H         3.5550310621        2.3187315200        7.0120298047
  O         4.6765105020       -7.8719866828        5.5980696041
  H         4.3039675529       -8.5962272284        5.0719748414
  H         5.4245865200       -8.2095650724        6.1655159500
  O        -3.7573228667       -8.2897063155        4.7557621552
  H        -4.5878310240       -8.8418952154        4.7464492470
  H        -3.0881431597       -8.9615179806        5.0154012915
  O        -3.9639889484        0.3534843597        3.5550277002
  H        -3.7614640764       -0.5443121050        3.8797235308
  H        -4.9491692366        0.4721130688        3.7849931099
  O        -9.5736485600       -3.5562600448        6.8575278600
  H        -8.8675458331       -3.1422167216        6.3238519289
  H        -9.7480075311       -2.8170996889        7.4763424356
  O         3.3412505322        6.3177593588        8.1414816310
  H         3.8273880670        5.7769630287        7.4348623831
  H         2.6933280588        6.9007182496        7.7118226719
  O        -2.9310618399       -6.6152070692        2.5918981833
  H        -3.1263209030       -7.3811004047        1.9550466470
  H        -3.2333118079       -7.0151589448        3.4170768701
  O        -3.0805160524        4.6800093851        7.7923112399
  H        -3.4495435674        4.1174710881        7.0721136532
  H        -2.3719418394        4.0866502207        7.9595720999
  O        -4.0514804818       -2.5567038395        7.0402692961
  H        -4.2700065277       -3.2727858401        7.6779241934
  H        -3.1531340506       -2.3455392427        7.3016278097
  O        -7.1020473115        4.0963913050        7.3687328739
  H        -7.6141032969        3.4247513409        7.8999521860
  H        -6.3724542504        4.3267911890        8.0216406239
  O        -7.8151562588        0.0637897655        2.5869838731
  H        -7.7178504766        0.8683742153        2.0894602367
  H        -7.2658741439       -0.6476735910        2.2073757163
  O       -10.0123274834       -2.1724405212        9.2098445808
  H       -10.8487273361       -1.6174055084        9.1316272978
  H       -10.1566313934       -2.9997322307        9.7440040596
  O         1.4279615589       -4.8696016765        7.2831636394
  H         2.1787223164       -4.1773597581        7.3410816222
  H         0.5786247392       -4.4924287343        6.8719407183
  O         3.5556804787        3.1943142215        4.2096467275
  H         2.9014942061        3.4664948468        3.5306496969
  H         3.2015670766        2.6776450196        5.0047381725
  O         3.2343353537       -1.4131809397       14.9141190874
  H         3.2866753040       -2.3761488029       14.8311133256
  H         2.4253610506       -1.1538022327       15.3242921079
  O        -1.3803349357       -9.7038474970        4.9622236095
  H        -1.5074954421      -10.0749847120        4.0468935614
  H        -0.8454321052       -8.9011123350        4.7656161161
  O        -6.6288258724        0.7191602860        4.9970609794
  H        -6.6520477470        1.6915561286        5.0336163118
  H        -7.2265225121        0.5133254728        4.2424603643
  O         1.5585598138        3.7272616961        2.1574740780
  H         1.9320900052        4.3602075457        1.4906127296
  H         0.8636783246        4.2755298664        2.6919374310
  O         2.9079611617       -2.9355826157        1.8449439882
  H         2.0286141791       -3.3072769071        2.2330688535
  H         2.8968691895       -3.2482606622        0.9410330679
  O         0.4054870298       -3.9643915757       12.3890743605
  H        -0.3171842597       -3.2880080092       12.6263368190
  H         0.3226153010       -4.7869747224       12.8840037073
  O         0.0279321933      -10.8634354816        6.8769907110
  H        -0.3379156470      -10.4975709491        6.0277374509
  H         0.9875438546      -10.7996162221        6.7879972246
  O        -1.3919506183       -4.0073653089       -3.0264205310
  H        -1.7534003748       -4.8705190927       -2.7794990957
  H        -2.1416423572       -3.3654046929       -3.2284301143
  O        -3.6266167883      -11.2637590814        6.4667484758
  H        -4.2520433045      -11.4955355748        5.7379904522
  H        -4.2126018266      -11.3978189212        7.3210294068
  O        -3.0252215280      -11.0532085139        0.2826934975
  H        -3.2763145604      -10.1226747317        0.2815831438
  H        -2.5861427765      -11.1101312275        1.1816766031
  O        -3.1776028346       -1.4945824178       10.1879607374
  H        -3.3523141467       -0.5401454122       10.4425764163
  H        -4.0300470950       -2.0608695242       10.2799050166
  O        -8.7664013759        2.6120728592       -1.2154027055
  H        -7.8659233981        2.3790550762       -1.4501988258
  H        -9.2722853432        1.7152170511       -1.3194951957
  O        -9.0372563548       -6.1856009021        3.4925955897
  H        -8.7433020328       -5.2504517250        3.4314778743
  H        -8.6357862442       -6.6977966987        4.2576938863
  O        -8.3316443486      -10.6837007365        1.5800036644
  H        -8.4226912191      -10.6125747440        0.5928335131
  H        -9.0823590834      -10.2267141977        2.0245941325
  O        -3.5233588504      -15.5854766987        4.3817994948
  H        -2.5631107700      -15.3596061325        4.5390748973
  H        -3.8173982384      -15.7886023133        5.3401228736
  O         2.0657399697       -7.8155373653        0.2046843304
  H         1.6696273787       -8.0571766481       -0.6134850875
  H         2.9547217146       -7.4531839819       -0.0641985867
  O         0.1034389674       -5.8124379617       -0.0110855681
  H        -0.3809138139       -5.2258396932        0.6211647292
  H         0.5038385034       -6.5160584522        0.4744295894
  O        -1.6410071323        0.0352679349        6.3536165550
  H        -2.3518354917        0.7449558047        6.4277092825
  H        -0.8738157413        0.6434761340        6.4486351096
  O        -1.7034204785      -11.2939219901        2.6461760343
  H        -0.8398914810      -11.7948005291        2.6727434897
  H        -2.3277907258      -12.0091259309        2.9774566486
  O         2.0907937005       -6.0308871066       -5.0440615007
  H         3.0878638354       -5.9668807148       -5.2291965168
  H         1.7248792384       -5.2690730022       -4.5295963197
  O         6.0083401110       -1.9554500471       -1.8682527048
  H         5.3884128493       -1.2416315659       -2.0776546757
  H         5.5207333924       -2.7913304300       -2.0560529165
  O         1.1042284500       -3.9115784737       -3.9602847824
  H         1.4006505849       -3.6231082320       -3.0831659136
  H         0.1276621334       -4.0650599819       -3.7606342847
  O        -3.9605239786       -4.2670882943        2.0387500774
  H        -3.3701632661       -5.0509442017        2.3239509829
  H        -3.6952474239       -3.5999231413        2.6828837974
  O         0.4674340599       -4.0742668614        2.5084359663
  H        -0.4613719307       -3.7016436618        2.2465770172
  H         0.4609907544       -4.5064495376        3.4302777944
  O        -0.5748211414       -0.9913747296        3.8155492005
  H         0.0905536503       -1.5209517256        4.3665274693
  H        -1.1790723286       -0.5217777374        4.4264247718
  O        -6.4756022578       -1.6433268715        1.1700280057
  H        -6.7971488963       -1.8342587488        0.2351964079
  H        -5.6409347679       -2.1613645585        1.3116404606
  O        -1.5208525252       -2.5051886703        1.9531436003
  H        -1.2639421494       -2.3432421072        0.9912323171
  H        -0.9842175754       -1.8651020430        2.5098193353
  O         5.8269814624       -6.9506780744        1.4194225216
  H         5.4103887406       -6.5435752397        2.2223083995
  H         6.4477868754       -6.2127992494        1.0689344860
  O        -5.8393947988       -4.6029869311       -1.6899529184
  H        -6.7097454604       -4.7304842276       -2.1310194267
  H        -5.2436757047       -4.0767505050       -2.2957911759
  O        -5.7437640302       -7.6567485599        9.3624948138
  H        -5.3435728834       -7.0165792272        8.7177430161
  H        -6.6638419173       -7.2730576654        9.3669087991
  O        -8.8221962040       -7.4583640160       -0.7441016647
  H        -8.6587130430       -8.4556411671       -0.9199346796
  H        -8.3600007835       -7.3311635172        0.2009082678
  O        -0.5421126622       -2.1702912442       -0.8124124482
  H        -0.1684281305       -1.2648399581       -0.8749044767
  H        -1.1916797614       -2.4931819117       -1.4717467727
  O        -7.5068791168       -2.2665189339        5.3487877645
  H        -7.5761672213       -2.7778175775        4.5240313493
  H        -6.7349030641       -2.5435821933        5.8978732973
  O        -8.8218239079       -8.6595659934       -4.0950740731
  H        -8.3138740470       -9.1107332713       -3.4081124269
  H        -9.7768668327       -8.8613214764       -3.9092725030
  O        -1.8890437276       -6.5690866862       -2.0152833435
  H        -2.8138787900       -6.6265442183       -1.6157264892
  H        -1.2466577156       -6.2679809911       -1.2415755519
  O       -10.1393000110       -0.7816315307        5.9168566859
  H        -9.1993392474       -1.0905211751        6.0218684378
  H       -10.2510875854       -0.8096679706        4.9633957684
  O        -3.7049519003       -2.8524252626       -0.3039460344
  H        -3.7142877358       -3.5929452169        0.3595406564
  H        -3.0347505486       -2.2107804669        0.0044761136
  O         1.8153985201       -3.7299585751       -1.1236507134
  H         1.5660652696       -4.6407615316       -0.8434399083
  H         0.9382871755       -3.2157984080       -0.9554698100
  O         0.4701269220      -12.9220904053       -0.7536843822
  H         0.5966208133      -12.4734025529        0.1699549596
  H        -0.0208457128      -12.3163901120       -1.3089972248
  O       -10.6050069496       -0.4600711443        3.0383662503
  H       -10.7542222775       -1.3004904088        2.5480413392
  H        -9.6466074086       -0.2690852689        2.9202857406
  H        20.3393659804      -13.9031154800      -40.6392564122
  H        17.2466980814      -10.9082420193      -42.7455770550
  H        18.7368354221       -8.5591800995      -42.3811722925
  H        14.2104547665      -14.4084913864      -42.1936738008
  H        12.6327948366      -15.9532451602      -37.6541653168
  H        12.4116221679       -1.4135436738      -40.9360983520
  H        13.6062440858       -5.1959177036      -43.0512529786
  H        10.6408580284       -9.9356627396      -42.6140712622
  O        10.6869645734       -6.5949983812      -41.4313516161
  O        19.3403727286      -15.8396536300      -31.2363505866
  O        14.7245126361       -7.5550341363      -35.9879881279
  O        10.2318805525      -14.2044283958      -27.9972014958
  C        11.5186616108      -15.5966134818      -25.6900694727
  H        11.6477283754      -15.1883441646      -22.2002560186
  C        11.3554678735      -14.9401529374      -23.1800433765
  O        11.5609892372      -13.4680231480      -23.1844671940
  C        12.1814418720      -15.4622958469      -24.3272220338
  H        10.2751596419      -15.0885997422      -23.3160435510
  C        10.7809122330      -12.6792609070      -22.2453163617
  C        11.5412577622      -12.4704443707      -21.0026995088
  O        11.6579525739      -13.7153665056      -20.2904172852
  H         9.8321325705      -13.2307623643      -22.2769558862
  H        10.6494818717      -11.5609579511      -22.6946714832
  H        10.9303255490      -11.7350952000      -20.3347873803
  H        12.4843068054      -11.9802143175      -21.1006206070
  C        10.9759809432      -13.8391207283      -18.9725789256
  C         9.5269939570      -14.2915401700      -19.1394136661
  O         8.5701875172      -13.3774477434      -19.7701280947
  C         8.2754048136      -12.1381297677      -19.1172261041
  C         8.0315781893      -12.2360122905      -17.6182591139
  O         9.2999604495      -11.9444205184      -16.9684925633
  C         9.5182445107      -12.5862842528      -15.6520323880
  C         8.2806666138      -12.7815690082      -14.7425422777
  O         7.6874397841      -11.4823419176      -14.3577747145
  C         7.5672107324      -11.1023800097      -12.9006947405
  C         7.2078114559      -12.2234126207      -11.8782335937
  O         7.3021287534      -11.5680156553      -10.6444444631
  C         6.0702869735      -10.9956346776      -10.1115463510
  C         5.8495565683      -11.4564021180       -8.6750604943
  O         5.7116782987      -12.9110705199       -8.5084209356
  H        11.0614410241      -12.9173888049      -18.4034183282
  H        11.4625555828      -14.6904884832      -18.5640558556
  H         9.2164328124      -14.4605782806      -18.0868771506
  H         9.3650522160      -15.2600847165      -19.6968941801
  H         7.3202273722      -11.8259664986      -19.5789416337
  H         9.0794013793      -11.3584225248      -19.2736359499
  H         7.6473058957      -13.2094656723      -17.3817348658
  H         7.3640661650      -11.4224158099      -17.2354751051
  H        10.3037597593      -12.0041960521      -15.1648828452
  H         9.8187962936      -13.6193971810      -15.8310839229
  H         7.6084149340      -13.3262402839      -15.2827461763
  H         8.6020798122      -13.4257193702      -13.8953798471
  H         6.2353758483      -12.5931693238      -12.0993112829
  H         7.9969121855      -12.9990592325      -11.9898301590
  H         6.9064225297      -10.2494711407      -12.8301525687
  H         8.5703913608      -10.8401540371      -12.6395066326
  H         5.3135909003      -11.3171865235      -10.7659620007
  H         6.1345290120       -9.9068837068      -10.1342843538
  H         4.9382953408      -10.9635850445       -8.2489546609
  H         6.7171941005      -11.2221538116       -8.0521039917
  C         5.1624255355      -13.7532939361       -9.5421754670
  H         4.2820456273      -13.4029233769      -10.1093549702
  H         5.0012626572      -14.6945350600       -9.0210708830
  H         5.9101293633      -13.9483193320      -10.3380745057
  H        13.0805241482      -14.8525751188      -24.4174894568
  H        12.5814749034      -16.4559387625      -23.9687066163
  H        10.7972403527      -16.4509634966      -25.6721135244
  H        12.3357137955      -15.9197341121      -26.3837397087
 Si        10.5270682749      -14.1673925457      -26.3739850737
  O        11.1583371763      -12.7813921742      -25.8127121364
  O         9.0672288185      -14.1619930346      -25.6323887042
  H        11.3313616992      -12.9205114979      -24.7776887627
  H         8.3742415213      -14.7628464756      -25.8907648891
  O        19.4535440692      -14.2937916037      -40.6481176835
  O        17.7124012351       -9.4253227273      -27.2221073659
 Si        18.4702959198       -8.5167974703      -26.0159260363
  O        18.8007437904       -9.7205974355      -24.9175533859
  O        19.7587236972       -7.6762979917      -26.6040985542
  H        20.2486743882       -8.2794232833      -27.2253707340
  H        18.5621948790      -10.6263553367      -25.1715627367
  C        17.4052745108       -7.2320730660      -25.2007648201
  H        18.9441410982       -7.0716344427      -22.1152782903
  C        18.3833115462       -7.5782220429      -22.8311387921
  O        17.1048335127       -8.0519088876      -22.2526735700
  C        18.1301124870       -6.5672628804      -23.9776321557
  H        18.9907970447       -8.5023084665      -23.0587097496
  C        17.1510495995       -8.2480695412      -20.8146539688
  C        16.6076852370       -6.9965458661      -20.0666715115
  O        16.3293412399       -7.4694021816      -18.7508188885
  H        18.2613753090       -8.5029929159      -20.6979610793
  H        16.5461140896       -9.1748374133      -20.5698197585
  H        15.6327866836       -6.7888700273      -20.6046221600
  H        17.3481634473       -6.1329755413      -20.0699609724
  C        15.6547513269       -6.4540858436      -17.9075940049
  C        15.3652215986       -7.0882068363      -16.5122419654
  O        14.5036766188       -6.1280918469      -15.8341707636
  C        14.0496465493       -6.7547212939      -14.6095982108
  C        12.7456035877       -6.0541309129      -14.1026405322
  O        12.5561118965       -6.2377107718      -12.6696635788
  C        13.4062436798       -5.4228257144      -11.8019401365